<?xml version="1.0" encoding="UTF-8"?>

<!-- generated on 2023-11-26 16:41:04 by Eclipse SUMO GUI Version 1.19.0
<configuration xmlns:xsi="http://www.w3.org/2001/XMLSchema-instance" xsi:noNamespaceSchemaLocation="http://sumo.dlr.de/xsd/sumoConfiguration.xsd">

    <input>
        <net-file value="data/intersection1.net.xml"/>
        <route-files value="data/intersection1.rou.xml"/>
        <additional-files value="data/intersection1.det.xml"/>
    </input>

    <output>
        <tripinfo-output value="tripinfo.xml"/>
    </output>

    <time>
        <begin value="0"/>
        <end value="15000"/>
        <step-length value="0.01"/>
    </time>

    <traci_server>
        <remote-port value="55896"/>
    </traci_server>

    <gui_only>
        <gui-settings-file value="data/intersection1.gui.xml"/>
        <start value="true"/>
    </gui_only>

</configuration>
-->

<tripinfos xmlns:xsi="http://www.w3.org/2001/XMLSchema-instance" xsi:noNamespaceSchemaLocation="http://sumo.dlr.de/xsd/tripinfo_file.xsd">
    <tripinfo id="truck_right_3.0" depart="0.21" departLane="r2c_0" departPos="7.20" departSpeed="0.00" departDelay="0.00" arrival="20.30" arrivalLane="c2d_2" arrivalPos="86.40" arrivalSpeed="14.03" duration="20.09" routeLength="190.11" waitingTime="0.00" waitingCount="0" stopTime="0.00" timeLoss="5.95" rerouteNo="0" devices="tripinfo_truck_right_3.0" vType="truck" speedFactor="1.01" vaporized=""/>
    <tripinfo id="car_right_2.0" depart="2.40" departLane="r2c_0" departPos="5.10" departSpeed="0.00" departDelay="1.37" arrival="23.19" arrivalLane="c2l_0" arrivalPos="86.40" arrivalSpeed="14.26" duration="20.79" routeLength="194.90" waitingTime="0.00" waitingCount="0" stopTime="0.00" timeLoss="7.12" rerouteNo="0" devices="tripinfo_car_right_2.0" vType="car" speedFactor="1.03" vaporized=""/>
    <tripinfo id="car_right_3.0" depart="0.99" departLane="r2c_0" departPos="5.10" departSpeed="0.00" departDelay="0.22" arrival="24.68" arrivalLane="c2d_2" arrivalPos="86.40" arrivalSpeed="13.03" duration="23.69" routeLength="192.21" waitingTime="0.00" waitingCount="0" stopTime="0.00" timeLoss="8.30" rerouteNo="0" devices="tripinfo_car_right_3.0" vType="car" speedFactor="0.94" vaporized=""/>
    <tripinfo id="truck_right_2.0" depart="6.78" departLane="r2c_0" departPos="7.20" departSpeed="0.00" departDelay="5.42" arrival="26.55" arrivalLane="c2l_0" arrivalPos="86.40" arrivalSpeed="13.08" duration="19.77" routeLength="192.80" waitingTime="0.00" waitingCount="0" stopTime="0.00" timeLoss="5.02" rerouteNo="0" devices="tripinfo_truck_right_2.0" vType="truck" speedFactor="0.94" vaporized=""/>
    <tripinfo id="car_down_1.0" depart="8.02" departLane="d2c_0" departPos="5.10" departSpeed="0.00" departDelay="6.96" arrival="29.67" arrivalLane="c2l_2" arrivalPos="86.40" arrivalSpeed="14.54" duration="21.65" routeLength="192.21" waitingTime="0.00" waitingCount="0" stopTime="0.00" timeLoss="7.86" rerouteNo="0" devices="tripinfo_car_down_1.0" vType="car" speedFactor="1.05" vaporized=""/>
    <tripinfo id="truck_down_1.0" depart="9.29" departLane="d2c_0" departPos="7.20" departSpeed="0.00" departDelay="7.87" arrival="32.60" arrivalLane="c2l_2" arrivalPos="86.40" arrivalSpeed="13.00" duration="23.31" routeLength="190.11" waitingTime="0.00" waitingCount="0" stopTime="0.00" timeLoss="8.05" rerouteNo="0" devices="tripinfo_truck_down_1.0" vType="truck" speedFactor="0.94" vaporized=""/>
    <tripinfo id="truck_down_2.0" depart="4.62" departLane="d2c_0" departPos="7.20" departSpeed="0.00" departDelay="3.62" arrival="33.38" arrivalLane="c2t_1" arrivalPos="86.40" arrivalSpeed="15.15" duration="28.76" routeLength="192.80" waitingTime="2.44" waitingCount="1" stopTime="0.00" timeLoss="16.04" rerouteNo="0" devices="tripinfo_truck_down_2.0" vType="truck" speedFactor="1.09" vaporized=""/>
    <tripinfo id="bus_down_2.0" depart="0.62" departLane="d2c_0" departPos="12.10" departSpeed="0.00" departDelay="0.00" arrival="34.43" arrivalLane="c2t_0" arrivalPos="86.40" arrivalSpeed="12.31" duration="33.81" routeLength="187.90" waitingTime="6.81" waitingCount="1" stopTime="0.00" timeLoss="18.55" rerouteNo="0" devices="tripinfo_bus_down_2.0" vType="bus" speedFactor="0.89" vaporized=""/>
    <tripinfo id="truck_down_3.0" depart="10.08" departLane="d2c_0" departPos="7.20" departSpeed="0.00" departDelay="7.91" arrival="35.27" arrivalLane="c2r_0" arrivalPos="86.40" arrivalSpeed="13.18" duration="25.19" routeLength="174.63" waitingTime="0.00" waitingCount="0" stopTime="0.00" timeLoss="11.17" rerouteNo="0" devices="tripinfo_truck_down_3.0" vType="truck" speedFactor="0.95" vaporized=""/>
    <tripinfo id="bus_down_1.0" depart="14.80" departLane="d2c_0" departPos="12.10" departSpeed="0.00" departDelay="12.50" arrival="35.60" arrivalLane="c2l_2" arrivalPos="86.40" arrivalSpeed="12.94" duration="20.80" routeLength="185.21" waitingTime="0.00" waitingCount="0" stopTime="0.00" timeLoss="5.83" rerouteNo="0" devices="tripinfo_bus_down_1.0" vType="bus" speedFactor="0.93" vaporized=""/>
    <tripinfo id="car_down_3.0" depart="16.16" departLane="d2c_0" departPos="5.10" departSpeed="0.00" departDelay="12.99" arrival="37.94" arrivalLane="c2r_0" arrivalPos="86.40" arrivalSpeed="15.22" duration="21.78" routeLength="176.73" waitingTime="0.00" waitingCount="0" stopTime="0.00" timeLoss="10.37" rerouteNo="0" devices="tripinfo_car_down_3.0" vType="car" speedFactor="1.18" vaporized=""/>
    <tripinfo id="bus_left_1.0" depart="0.03" departLane="l2c_0" departPos="12.10" departSpeed="0.00" departDelay="0.00" arrival="43.73" arrivalLane="c2t_2" arrivalPos="86.40" arrivalSpeed="14.72" duration="43.70" routeLength="185.21" waitingTime="17.40" waitingCount="1" stopTime="0.00" timeLoss="30.56" rerouteNo="0" devices="tripinfo_bus_left_1.0" vType="bus" speedFactor="1.06" vaporized=""/>
    <tripinfo id="truck_left_3.0" depart="4.79" departLane="l2c_0" departPos="7.20" departSpeed="0.00" departDelay="4.22" arrival="44.43" arrivalLane="c2d_0" arrivalPos="86.40" arrivalSpeed="14.53" duration="39.64" routeLength="174.63" waitingTime="9.99" waitingCount="1" stopTime="0.00" timeLoss="26.91" rerouteNo="0" devices="tripinfo_truck_left_3.0" vType="truck" speedFactor="1.05" vaporized=""/>
    <tripinfo id="car_left_2.1" depart="12.03" departLane="l2c_0" departPos="5.10" departSpeed="0.00" departDelay="10.82" arrival="45.33" arrivalLane="c2r_1" arrivalPos="86.40" arrivalSpeed="12.87" duration="33.30" routeLength="194.90" waitingTime="4.11" waitingCount="1" stopTime="0.00" timeLoss="18.16" rerouteNo="0" devices="tripinfo_car_left_2.1" vType="car" speedFactor="0.93" vaporized=""/>
    <tripinfo id="car_left_2.0" depart="0.41" departLane="l2c_0" departPos="5.10" departSpeed="0.00" departDelay="0.00" arrival="45.69" arrivalLane="c2r_0" arrivalPos="86.40" arrivalSpeed="11.54" duration="45.28" routeLength="194.90" waitingTime="15.73" waitingCount="1" stopTime="0.00" timeLoss="28.40" rerouteNo="0" devices="tripinfo_car_left_2.0" vType="car" speedFactor="0.83" vaporized=""/>
    <tripinfo id="truck_left_3.1" depart="8.63" departLane="l2c_0" departPos="7.20" departSpeed="0.00" departDelay="7.45" arrival="45.99" arrivalLane="c2d_0" arrivalPos="86.40" arrivalSpeed="15.60" duration="37.36" routeLength="174.63" waitingTime="7.16" waitingCount="1" stopTime="0.00" timeLoss="25.51" rerouteNo="0" devices="tripinfo_truck_left_3.1" vType="truck" speedFactor="1.12" vaporized=""/>
    <tripinfo id="bicycle_left_1.0" depart="16.72" departLane="l2c_0" departPos="0.60" departSpeed="0.00" departDelay="14.83" arrival="46.97" arrivalLane="c2t_2" arrivalPos="86.40" arrivalSpeed="11.47" duration="30.25" routeLength="196.71" waitingTime="0.00" waitingCount="0" stopTime="0.00" timeLoss="12.38" rerouteNo="0" devices="tripinfo_bicycle_left_1.0" vType="bicycle" speedFactor="0.83" vaporized=""/>
    <tripinfo id="bicycle_left_2.0" depart="14.48" departLane="l2c_0" departPos="0.60" departSpeed="0.00" departDelay="12.93" arrival="47.33" arrivalLane="c2r_1" arrivalPos="86.40" arrivalSpeed="14.14" duration="32.85" routeLength="199.40" waitingTime="0.00" waitingCount="0" stopTime="0.00" timeLoss="18.75" rerouteNo="0" devices="tripinfo_bicycle_left_2.0" vType="bicycle" speedFactor="1.02" vaporized=""/>
    <tripinfo id="car_left_1.0" depart="18.02" departLane="l2c_0" departPos="5.10" departSpeed="0.00" departDelay="15.92" arrival="48.16" arrivalLane="c2t_2" arrivalPos="86.40" arrivalSpeed="12.46" duration="30.14" routeLength="192.21" waitingTime="0.00" waitingCount="0" stopTime="0.00" timeLoss="14.40" rerouteNo="0" devices="tripinfo_car_left_1.0" vType="car" speedFactor="0.92" vaporized=""/>
    <tripinfo id="bicycle_left_2.1" depart="21.71" departLane="l2c_0" departPos="0.60" departSpeed="0.00" departDelay="18.48" arrival="48.31" arrivalLane="c2r_1" arrivalPos="86.40" arrivalSpeed="14.31" duration="26.60" routeLength="199.40" waitingTime="0.00" waitingCount="0" stopTime="0.00" timeLoss="12.67" rerouteNo="0" devices="tripinfo_bicycle_left_2.1" vType="bicycle" speedFactor="1.03" vaporized=""/>
    <tripinfo id="bus_left_2.0" depart="26.63" departLane="l2c_0" departPos="12.10" departSpeed="0.00" departDelay="23.26" arrival="49.34" arrivalLane="c2r_1" arrivalPos="86.40" arrivalSpeed="14.99" duration="22.71" routeLength="187.90" waitingTime="0.00" waitingCount="0" stopTime="0.00" timeLoss="10.32" rerouteNo="0" devices="tripinfo_bus_left_2.0" vType="bus" speedFactor="1.09" vaporized=""/>
    <tripinfo id="car_left_1.1" depart="18.94" departLane="l2c_0" departPos="5.10" departSpeed="0.00" departDelay="16.16" arrival="49.61" arrivalLane="c2t_2" arrivalPos="86.40" arrivalSpeed="13.48" duration="30.67" routeLength="192.21" waitingTime="0.00" waitingCount="0" stopTime="0.00" timeLoss="18.35" rerouteNo="0" devices="tripinfo_car_left_1.1" vType="car" speedFactor="1.17" vaporized=""/>
    <tripinfo id="bus_top_3.0" depart="9.43" departLane="t2c_0" departPos="12.10" departSpeed="0.00" departDelay="9.05" arrival="54.37" arrivalLane="c2r_2" arrivalPos="86.40" arrivalSpeed="10.71" duration="44.94" routeLength="185.21" waitingTime="18.00" waitingCount="1" stopTime="0.00" timeLoss="31.42" rerouteNo="0" devices="tripinfo_bus_top_3.0" vType="bus" speedFactor="1.03" vaporized=""/>
    <tripinfo id="car_top_2.1" depart="4.04" departLane="t2c_0" departPos="5.10" departSpeed="0.00" departDelay="3.82" arrival="55.13" arrivalLane="c2d_1" arrivalPos="86.40" arrivalSpeed="15.04" duration="51.09" routeLength="194.90" waitingTime="21.83" waitingCount="1" stopTime="0.00" timeLoss="38.14" rerouteNo="0" devices="tripinfo_car_top_2.1" vType="car" speedFactor="1.08" vaporized=""/>
    <tripinfo id="truck_top_1.0" depart="9.77" departLane="t2c_0" departPos="7.20" departSpeed="0.00" departDelay="8.89" arrival="55.24" arrivalLane="c2l_0" arrivalPos="86.40" arrivalSpeed="11.90" duration="45.47" routeLength="174.63" waitingTime="15.01" waitingCount="1" stopTime="0.00" timeLoss="29.94" rerouteNo="0" devices="tripinfo_truck_top_1.0" vType="truck" speedFactor="0.86" vaporized=""/>
    <tripinfo id="car_top_2.0" depart="0.17" departLane="t2c_0" departPos="5.10" departSpeed="0.00" departDelay="0.00" arrival="55.30" arrivalLane="c2d_0" arrivalPos="86.40" arrivalSpeed="13.03" duration="55.13" routeLength="194.90" waitingTime="25.97" waitingCount="1" stopTime="0.00" timeLoss="40.18" rerouteNo="0" devices="tripinfo_car_top_2.0" vType="car" speedFactor="0.94" vaporized=""/>
    <tripinfo id="bus_top_2.0" depart="26.14" departLane="t2c_0" departPos="12.10" departSpeed="0.00" departDelay="24.46" arrival="55.90" arrivalLane="c2d_2" arrivalPos="86.40" arrivalSpeed="13.54" duration="29.76" routeLength="187.90" waitingTime="0.00" waitingCount="0" stopTime="0.00" timeLoss="15.89" rerouteNo="0" devices="tripinfo_bus_top_2.0" vType="bus" speedFactor="0.97" vaporized=""/>
    <tripinfo id="car_top_2.2" depart="13.17" departLane="t2c_0" departPos="5.10" departSpeed="0.00" departDelay="11.97" arrival="56.55" arrivalLane="c2d_1" arrivalPos="86.40" arrivalSpeed="13.77" duration="43.38" routeLength="194.90" waitingTime="10.36" waitingCount="1" stopTime="0.00" timeLoss="29.23" rerouteNo="0" devices="tripinfo_car_top_2.2" vType="car" speedFactor="0.99" vaporized=""/>
    <tripinfo id="truck_top_1.1" depart="21.42" departLane="t2c_0" departPos="7.20" departSpeed="0.00" departDelay="19.83" arrival="56.92" arrivalLane="c2l_0" arrivalPos="86.40" arrivalSpeed="14.03" duration="35.50" routeLength="174.63" waitingTime="4.31" waitingCount="1" stopTime="0.00" timeLoss="22.33" rerouteNo="0" devices="tripinfo_truck_top_1.1" vType="truck" speedFactor="1.01" vaporized=""/>
    <tripinfo id="bus_top_2.1" depart="37.83" departLane="t2c_0" departPos="12.10" departSpeed="0.00" departDelay="35.49" arrival="57.85" arrivalLane="c2d_2" arrivalPos="86.40" arrivalSpeed="16.14" duration="20.02" routeLength="187.90" waitingTime="0.00" waitingCount="0" stopTime="0.00" timeLoss="8.55" rerouteNo="0" devices="tripinfo_bus_top_2.1" vType="bus" speedFactor="1.18" vaporized=""/>
    <tripinfo id="car_top_2.3" depart="17.04" departLane="t2c_0" departPos="5.10" departSpeed="0.00" departDelay="15.69" arrival="58.32" arrivalLane="c2d_1" arrivalPos="86.40" arrivalSpeed="12.20" duration="41.28" routeLength="194.90" waitingTime="7.03" waitingCount="1" stopTime="0.00" timeLoss="25.31" rerouteNo="0" devices="tripinfo_car_top_2.3" vType="car" speedFactor="0.88" vaporized=""/>
    <tripinfo id="bus_top_1.0" depart="29.11" departLane="t2c_0" departPos="12.10" departSpeed="0.00" departDelay="27.25" arrival="59.85" arrivalLane="c2l_0" arrivalPos="86.40" arrivalSpeed="12.36" duration="30.74" routeLength="169.73" waitingTime="0.00" waitingCount="0" stopTime="0.00" timeLoss="16.17" rerouteNo="0" devices="tripinfo_bus_top_1.0" vType="bus" speedFactor="0.89" vaporized=""/>
    <tripinfo id="car_right_1.0" depart="11.03" departLane="r2c_0" departPos="5.10" departSpeed="0.00" departDelay="8.74" arrival="63.88" arrivalLane="c2t_0" arrivalPos="86.40" arrivalSpeed="13.88" duration="52.85" routeLength="176.73" waitingTime="25.11" waitingCount="1" stopTime="0.00" timeLoss="40.96" rerouteNo="0" devices="tripinfo_car_right_1.0" vType="car" speedFactor="1.13" vaporized=""/>
    <tripinfo id="car_right_3.1" depart="10.18" departLane="r2c_0" departPos="5.10" departSpeed="0.00" departDelay="8.66" arrival="64.95" arrivalLane="c2d_2" arrivalPos="86.40" arrivalSpeed="14.95" duration="54.77" routeLength="192.21" waitingTime="25.96" waitingCount="1" stopTime="0.00" timeLoss="42.31" rerouteNo="0" devices="tripinfo_car_right_3.1" vType="car" speedFactor="1.16" vaporized=""/>
    <tripinfo id="car_right_1.1" depart="14.90" departLane="r2c_0" departPos="5.10" departSpeed="0.00" departDelay="12.16" arrival="65.22" arrivalLane="c2t_0" arrivalPos="86.40" arrivalSpeed="13.96" duration="50.32" routeLength="176.73" waitingTime="18.72" waitingCount="1" stopTime="0.00" timeLoss="36.93" rerouteNo="0" devices="tripinfo_car_right_1.1" vType="car" speedFactor="1.01" vaporized=""/>
    <tripinfo id="car_right_2.1" depart="18.77" departLane="r2c_0" departPos="5.10" departSpeed="0.00" departDelay="15.63" arrival="65.23" arrivalLane="c2l_1" arrivalPos="86.40" arrivalSpeed="13.52" duration="46.46" routeLength="194.90" waitingTime="17.15" waitingCount="1" stopTime="0.00" timeLoss="32.04" rerouteNo="0" devices="tripinfo_car_right_2.1" vType="car" speedFactor="0.97" vaporized=""/>
    <tripinfo id="car_right_3.2" depart="30.38" departLane="r2c_0" departPos="5.10" departSpeed="0.00" departDelay="25.55" arrival="66.26" arrivalLane="c2d_2" arrivalPos="86.40" arrivalSpeed="15.43" duration="35.88" routeLength="192.21" waitingTime="3.23" waitingCount="1" stopTime="0.00" timeLoss="22.98" rerouteNo="0" devices="tripinfo_car_right_3.2" vType="car" speedFactor="1.12" vaporized=""/>
    <tripinfo id="car_right_2.2" depart="22.64" departLane="r2c_0" departPos="5.10" departSpeed="0.00" departDelay="19.44" arrival="66.81" arrivalLane="c2l_1" arrivalPos="86.40" arrivalSpeed="12.51" duration="44.17" routeLength="194.90" waitingTime="10.87" waitingCount="1" stopTime="0.00" timeLoss="28.59" rerouteNo="0" devices="tripinfo_car_right_2.2" vType="car" speedFactor="0.90" vaporized=""/>
    <tripinfo id="car_right_3.3" depart="31.47" departLane="r2c_0" departPos="5.10" departSpeed="0.00" departDelay="26.11" arrival="67.62" arrivalLane="c2d_2" arrivalPos="86.40" arrivalSpeed="14.45" duration="36.15" routeLength="192.21" waitingTime="1.00" waitingCount="1" stopTime="0.00" timeLoss="22.26" rerouteNo="0" devices="tripinfo_car_right_3.3" vType="car" speedFactor="1.04" vaporized=""/>
    <tripinfo id="car_right_2.3" depart="26.51" departLane="r2c_0" departPos="5.10" departSpeed="0.00" departDelay="21.84" arrival="67.71" arrivalLane="c2l_0" arrivalPos="86.40" arrivalSpeed="15.87" duration="41.20" routeLength="194.90" waitingTime="8.32" waitingCount="1" stopTime="0.00" timeLoss="28.92" rerouteNo="0" devices="tripinfo_car_right_2.3" vType="car" speedFactor="1.14" vaporized=""/>
    <tripinfo id="truck_right_2.1" depart="43.01" departLane="r2c_0" departPos="7.20" departSpeed="0.00" departDelay="36.44" arrival="68.50" arrivalLane="c2l_1" arrivalPos="86.40" arrivalSpeed="13.43" duration="25.49" routeLength="192.80" waitingTime="0.00" waitingCount="0" stopTime="0.00" timeLoss="11.14" rerouteNo="0" devices="tripinfo_truck_right_2.1" vType="truck" speedFactor="0.97" vaporized=""/>
    <tripinfo id="truck_right_1.0" depart="33.14" departLane="r2c_0" departPos="7.20" departSpeed="0.00" departDelay="27.46" arrival="68.78" arrivalLane="c2t_0" arrivalPos="86.40" arrivalSpeed="13.06" duration="35.64" routeLength="174.63" waitingTime="4.01" waitingCount="1" stopTime="0.00" timeLoss="21.48" rerouteNo="0" devices="tripinfo_truck_right_1.0" vType="truck" speedFactor="0.94" vaporized=""/>
    <tripinfo id="car_right_3.4" depart="36.54" departLane="r2c_0" departPos="5.10" departSpeed="0.00" departDelay="30.16" arrival="68.98" arrivalLane="c2d_2" arrivalPos="86.40" arrivalSpeed="15.10" duration="32.44" routeLength="192.21" waitingTime="0.00" waitingCount="0" stopTime="0.00" timeLoss="19.16" rerouteNo="0" devices="tripinfo_car_right_3.4" vType="car" speedFactor="1.09" vaporized=""/>
    <tripinfo id="bus_down_1.1" depart="14.81" departLane="d2c_0" departPos="12.10" departSpeed="0.00" departDelay="11.89" arrival="73.78" arrivalLane="c2l_2" arrivalPos="86.40" arrivalSpeed="13.82" duration="58.97" routeLength="185.21" waitingTime="31.12" waitingCount="2" stopTime="0.00" timeLoss="44.96" rerouteNo="0" devices="tripinfo_bus_down_1.1" vType="bus" speedFactor="0.99" vaporized=""/>
    <tripinfo id="car_down_2.0" depart="20.03" departLane="d2c_0" departPos="5.10" departSpeed="0.00" departDelay="16.79" arrival="75.26" arrivalLane="c2t_0" arrivalPos="86.40" arrivalSpeed="13.29" duration="55.23" routeLength="194.90" waitingTime="26.11" waitingCount="1" stopTime="0.00" timeLoss="40.57" rerouteNo="0" devices="tripinfo_car_down_2.0" vType="car" speedFactor="0.96" vaporized=""/>
    <tripinfo id="bicycle_down_2.0" depart="23.90" departLane="d2c_0" departPos="5.10" departSpeed="0.00" departDelay="20.15" arrival="75.41" arrivalLane="c2t_1" arrivalPos="86.40" arrivalSpeed="12.51" duration="51.51" routeLength="194.90" waitingTime="21.96" waitingCount="1" stopTime="0.00" timeLoss="35.93" rerouteNo="0" devices="tripinfo_bicycle_down_2.0" vType="car" speedFactor="0.90" vaporized=""/>
    <tripinfo id="car_down_2.1" depart="33.39" departLane="d2c_0" departPos="5.10" departSpeed="0.00" departDelay="29.02" arrival="76.87" arrivalLane="c2t_1" arrivalPos="86.40" arrivalSpeed="13.62" duration="43.48" routeLength="194.90" waitingTime="10.23" waitingCount="1" stopTime="0.00" timeLoss="30.67" rerouteNo="0" devices="tripinfo_car_down_2.1" vType="car" speedFactor="1.10" vaporized=""/>
    <tripinfo id="car_down_1.1" depart="32.83" departLane="d2c_0" departPos="5.10" departSpeed="0.00" departDelay="28.89" arrival="76.99" arrivalLane="c2l_2" arrivalPos="86.40" arrivalSpeed="11.87" duration="44.16" routeLength="192.21" waitingTime="11.35" waitingCount="1" stopTime="0.00" timeLoss="27.27" rerouteNo="0" devices="tripinfo_car_down_1.1" vType="car" speedFactor="0.85" vaporized=""/>
    <tripinfo id="bus_down_2.1" depart="29.29" departLane="d2c_0" departPos="12.10" departSpeed="0.00" departDelay="25.38" arrival="77.21" arrivalLane="c2t_0" arrivalPos="86.40" arrivalSpeed="11.81" duration="47.92" routeLength="187.90" waitingTime="15.62" waitingCount="1" stopTime="0.00" timeLoss="32.02" rerouteNo="0" devices="tripinfo_bus_down_2.1" vType="bus" speedFactor="0.85" vaporized=""/>
    <tripinfo id="car_down_3.1" depart="37.26" departLane="d2c_0" departPos="5.10" departSpeed="0.00" departDelay="32.74" arrival="78.01" arrivalLane="c2r_0" arrivalPos="86.40" arrivalSpeed="13.83" duration="40.75" routeLength="176.73" waitingTime="8.32" waitingCount="1" stopTime="0.00" timeLoss="27.24" rerouteNo="0" devices="tripinfo_car_down_3.1" vType="car" speedFactor="1.00" vaporized=""/>
    <tripinfo id="car_down_1.2" depart="41.13" departLane="d2c_0" departPos="5.10" departSpeed="0.00" departDelay="36.34" arrival="78.49" arrivalLane="c2l_2" arrivalPos="86.40" arrivalSpeed="13.17" duration="37.36" routeLength="192.21" waitingTime="4.26" waitingCount="1" stopTime="0.00" timeLoss="22.47" rerouteNo="0" devices="tripinfo_car_down_1.2" vType="car" speedFactor="0.97" vaporized=""/>
    <tripinfo id="truck_down_1.1" depart="56.21" departLane="d2c_0" departPos="7.20" departSpeed="0.00" departDelay="49.57" arrival="80.12" arrivalLane="c2l_2" arrivalPos="86.40" arrivalSpeed="14.56" duration="23.91" routeLength="190.11" waitingTime="0.00" waitingCount="0" stopTime="0.00" timeLoss="11.46" rerouteNo="0" devices="tripinfo_truck_down_1.1" vType="truck" speedFactor="1.15" vaporized=""/>
    <tripinfo id="car_left_3.0" depart="30.79" departLane="l2c_0" departPos="5.10" departSpeed="0.00" departDelay="26.46" arrival="83.88" arrivalLane="c2d_0" arrivalPos="86.40" arrivalSpeed="13.88" duration="53.09" routeLength="176.73" waitingTime="25.35" waitingCount="1" stopTime="0.00" timeLoss="39.86" rerouteNo="0" devices="tripinfo_car_left_3.0" vType="car" speedFactor="1.02" vaporized=""/>
    <tripinfo id="truck_left_1.0" depart="30.63" departLane="l2c_0" departPos="7.20" departSpeed="0.00" departDelay="27.08" arrival="84.07" arrivalLane="c2t_2" arrivalPos="86.40" arrivalSpeed="15.11" duration="53.44" routeLength="190.11" waitingTime="26.76" waitingCount="1" stopTime="0.00" timeLoss="40.31" rerouteNo="0" devices="tripinfo_truck_left_1.0" vType="truck" speedFactor="1.09" vaporized=""/>
    <tripinfo id="bus_left_2.1" depart="41.10" departLane="l2c_0" departPos="12.10" departSpeed="0.00" departDelay="36.47" arrival="84.37" arrivalLane="c2r_1" arrivalPos="86.40" arrivalSpeed="12.49" duration="43.27" routeLength="187.90" waitingTime="16.33" waitingCount="1" stopTime="0.00" timeLoss="28.23" rerouteNo="0" devices="tripinfo_bus_left_2.1" vType="bus" speedFactor="0.90" vaporized=""/>
    <tripinfo id="bus_left_3.0" depart="36.18" departLane="l2c_0" departPos="12.10" departSpeed="0.00" departDelay="31.69" arrival="85.43" arrivalLane="c2d_0" arrivalPos="86.40" arrivalSpeed="13.93" duration="49.25" routeLength="169.73" waitingTime="18.73" waitingCount="1" stopTime="0.00" timeLoss="36.33" rerouteNo="0" devices="tripinfo_bus_left_3.0" vType="bus" speedFactor="1.00" vaporized=""/>
    <tripinfo id="bus_left_2.2" depart="58.66" departLane="l2c_0" departPos="12.10" departSpeed="0.00" departDelay="53.08" arrival="86.06" arrivalLane="c2r_2" arrivalPos="86.40" arrivalSpeed="13.51" duration="27.40" routeLength="187.90" waitingTime="0.00" waitingCount="0" stopTime="0.00" timeLoss="13.50" rerouteNo="0" devices="tripinfo_bus_left_2.2" vType="bus" speedFactor="0.97" vaporized=""/>
    <tripinfo id="bus_left_2.3" depart="65.12" departLane="l2c_0" departPos="12.10" departSpeed="0.00" departDelay="58.96" arrival="86.33" arrivalLane="c2r_1" arrivalPos="86.40" arrivalSpeed="14.34" duration="21.21" routeLength="187.90" waitingTime="0.00" waitingCount="0" stopTime="0.00" timeLoss="8.12" rerouteNo="0" devices="tripinfo_bus_left_2.3" vType="bus" speedFactor="1.03" vaporized=""/>
    <tripinfo id="bus_left_1.1" depart="64.98" departLane="l2c_0" departPos="12.10" departSpeed="0.00" departDelay="59.08" arrival="87.75" arrivalLane="c2t_2" arrivalPos="86.40" arrivalSpeed="13.68" duration="22.77" routeLength="185.21" waitingTime="0.00" waitingCount="0" stopTime="0.00" timeLoss="8.62" rerouteNo="0" devices="tripinfo_bus_left_1.1" vType="bus" speedFactor="0.98" vaporized=""/>
    <tripinfo id="bus_left_3.1" depart="46.02" departLane="l2c_0" departPos="12.10" departSpeed="0.00" departDelay="40.85" arrival="88.04" arrivalLane="c2d_0" arrivalPos="86.40" arrivalSpeed="13.02" duration="42.02" routeLength="169.73" waitingTime="10.86" waitingCount="1" stopTime="0.00" timeLoss="28.21" rerouteNo="0" devices="tripinfo_bus_left_3.1" vType="bus" speedFactor="0.94" vaporized=""/>
    <tripinfo id="truck_top_1.2" depart="33.11" departLane="t2c_0" departPos="7.20" departSpeed="0.00" departDelay="31.06" arrival="92.61" arrivalLane="c2l_0" arrivalPos="86.40" arrivalSpeed="12.12" duration="59.50" routeLength="174.63" waitingTime="26.23" waitingCount="1" stopTime="0.00" timeLoss="44.25" rerouteNo="0" devices="tripinfo_truck_top_1.2" vType="truck" speedFactor="0.87" vaporized=""/>
    <tripinfo id="truck_top_3.0" depart="39.07" departLane="t2c_0" departPos="7.20" departSpeed="0.00" departDelay="36.34" arrival="93.14" arrivalLane="c2r_2" arrivalPos="86.40" arrivalSpeed="16.03" duration="54.07" routeLength="190.11" waitingTime="27.03" waitingCount="5" stopTime="0.00" timeLoss="41.70" rerouteNo="0" devices="tripinfo_truck_top_3.0" vType="truck" speedFactor="1.15" vaporized=""/>
    <tripinfo id="truck_top_2.0" depart="45.77" departLane="t2c_0" departPos="7.20" departSpeed="0.00" departDelay="42.36" arrival="93.49" arrivalLane="c2d_1" arrivalPos="86.40" arrivalSpeed="14.42" duration="47.72" routeLength="192.80" waitingTime="21.63" waitingCount="1" stopTime="0.00" timeLoss="34.34" rerouteNo="0" devices="tripinfo_truck_top_2.0" vType="truck" speedFactor="1.04" vaporized=""/>
    <tripinfo id="truck_top_1.3" depart="41.93" departLane="t2c_0" departPos="7.20" departSpeed="0.00" departDelay="38.79" arrival="94.22" arrivalLane="c2l_0" arrivalPos="86.40" arrivalSpeed="14.00" duration="52.29" routeLength="174.63" waitingTime="22.25" waitingCount="1" stopTime="0.00" timeLoss="39.24" rerouteNo="0" devices="tripinfo_truck_top_1.3" vType="truck" speedFactor="1.02" vaporized=""/>
    <tripinfo id="bicycle_top_3.0" depart="44.08" departLane="t2c_0" departPos="0.60" departSpeed="0.00" departDelay="40.89" arrival="94.95" arrivalLane="c2r_2" arrivalPos="86.40" arrivalSpeed="15.31" duration="50.87" routeLength="196.71" waitingTime="19.42" waitingCount="1" stopTime="0.00" timeLoss="37.48" rerouteNo="0" devices="tripinfo_bicycle_top_3.0" vType="bicycle" speedFactor="1.10" vaporized=""/>
</tripinfos>
