<?xml version="1.0" encoding="UTF-8"?>

<!-- generated on 2023-11-26 20:11:50 by Eclipse SUMO GUI Version 1.19.0
<configuration xmlns:xsi="http://www.w3.org/2001/XMLSchema-instance" xsi:noNamespaceSchemaLocation="http://sumo.dlr.de/xsd/sumoConfiguration.xsd">

    <input>
        <net-file value="data/intersection1.net.xml"/>
        <route-files value="data/intersection1.rou.xml"/>
    </input>

    <output>
        <tripinfo-output value="tripinfo.xml"/>
    </output>

    <time>
        <begin value="0"/>
        <end value="15000"/>
        <step-length value="0.01"/>
    </time>

    <traci_server>
        <remote-port value="56956"/>
    </traci_server>

    <gui_only>
        <gui-settings-file value="data/intersection1.gui.xml"/>
        <start value="true"/>
    </gui_only>

</configuration>
-->

<tripinfos xmlns:xsi="http://www.w3.org/2001/XMLSchema-instance" xsi:noNamespaceSchemaLocation="http://sumo.dlr.de/xsd/tripinfo_file.xsd">
</tripinfos>
